/*--------------------------------*- C++ -*----------------------------------*\
| =========                 |                                                 |
| \\      /  F ield         | OpenFOAM: The Open Source CFD Toolbox           |
|  \\    /   O peration     | Version:  4.0                                   |
|   \\  /    A nd           | Web:      www.OpenFOAM.org                      |
|    \\/     M anipulation  |                                                 |
\*---------------------------------------------------------------------------*/
FoamFile
{
    version     2.0;
    format      ascii;
    class       volScalarField;
    object      alpha.water;
}
// * * * * * * * * * * * * * * * * * * * * * * * * * * * * * * * * * * * * * //

dimensions      [0 0 0 0 0 0 0];//kg m s K mol A cd

internalField   uniform 0;//initially air in the entire domain - we will change that with setFields!

boundaryField
{
    top
    {
        type            zeroGradient;//BC is Neumann BC
    }

    bottom
    {
        type            zeroGradient;//BC is Neumann BC
    }

    sides
    {
        type            zeroGradient;//BC is Neumann BC
    }
    
    frontback
    {
        type            empty;//BC is Neumann BC
    }


}

// ************************************************************************* //
